3
Properties=species:S:1:pos:R:3:forces:R:3 lattice="10 0 0 0 10 0 0 0 10"
O 0 0 -2  0 0 -0.2
C 0 0  0  0 0 0
O 0 0  2  0 0 0.2
